<?xml version="1.0" encoding="UTF-8"?>

<!-- generated on 2023-11-23 00:12:42 by Eclipse SUMO GUI Version 1.18.0
<configuration xmlns:xsi="http://www.w3.org/2001/XMLSchema-instance" xsi:noNamespaceSchemaLocation="http://sumo.dlr.de/xsd/sumoConfiguration.xsd">

    <input>
        <net-file value="nets/simple_intersection/simple_intersection.net.xml"/>
        <route-files value="nets/simple_intersection/simple_intersection_dynamic.rou.xml"/>
    </input>

    <output>
        <tripinfo-output value="tripinfo.xml"/>
        <collision-output value="collision.xml"/>
        <statistic-output value="statistics.xml"/>
    </output>

    <processing>
        <collision.check-junctions value="true"/>
        <time-to-teleport value="-1"/>
        <waiting-time-memory value="1000"/>
        <max-depart-delay value="-1"/>
    </processing>

    <report>
        <duration-log.statistics value="true"/>
    </report>

    <traci_server>
        <remote-port value="64331"/>
    </traci_server>

    <random_number>
        <random value="true"/>
    </random_number>

    <gui_only>
        <quit-on-end value="true"/>
        <start value="true"/>
        <delay value="0"/>
    </gui_only>

</configuration>
-->

<tripinfos xmlns:xsi="http://www.w3.org/2001/XMLSchema-instance" xsi:noNamespaceSchemaLocation="http://sumo.dlr.de/xsd/tripinfo_file.xsd">
    <tripinfo id="we_0.0" depart="1.00" departLane="E0_0" departPos="0.00" departSpeed="0.00" departDelay="0.00" arrival="32.00" arrivalLane="E1_0" arrivalPos="189.60" arrivalSpeed="14.78" duration="31.00" routeLength="400.00" waitingTime="0.00" waitingCount="0" stopTime="0.00" timeLoss="4.39" rerouteNo="0" devices="tripinfo_we_0.0" vType="DEFAULT_VEHTYPE" speedFactor="1.10" vaporized=""/>
    <tripinfo id="se_0.1" depart="2.00" departLane="E2_0" departPos="11.17" departSpeed="0.00" departDelay="0.00" arrival="37.00" arrivalLane="E1_0" arrivalPos="189.60" arrivalSpeed="11.14" duration="35.00" routeLength="380.26" waitingTime="0.00" waitingCount="0" stopTime="0.00" timeLoss="3.79" rerouteNo="0" devices="tripinfo_se_0.1" vType="vt_se" speedFactor="0.88" vaporized=""/>
    <tripinfo id="sn_0.0" depart="6.00" departLane="E2_0" departPos="0.00" departSpeed="0.00" departDelay="0.00" arrival="38.00" arrivalLane="E3_0" arrivalPos="196.00" arrivalSpeed="14.24" duration="32.00" routeLength="400.00" waitingTime="0.00" waitingCount="0" stopTime="0.00" timeLoss="3.87" rerouteNo="0" devices="tripinfo_sn_0.0" vType="DEFAULT_VEHTYPE" speedFactor="1.05" vaporized=""/>
    <tripinfo id="se_0.0" depart="1.00" departLane="E2_0" departPos="0.00" departSpeed="0.00" departDelay="0.00" arrival="39.00" arrivalLane="E1_0" arrivalPos="189.60" arrivalSpeed="12.79" duration="38.00" routeLength="391.43" waitingTime="0.00" waitingCount="0" stopTime="0.00" timeLoss="9.21" rerouteNo="0" devices="tripinfo_se_0.0" vType="vt_se" speedFactor="1.00" vaporized=""/>
    <tripinfo id="se_0.2" depart="23.00" departLane="E2_0" departPos="7.60" departSpeed="0.00" departDelay="0.00" arrival="53.00" arrivalLane="E1_0" arrivalPos="189.60" arrivalSpeed="14.56" duration="30.00" routeLength="383.83" waitingTime="0.00" waitingCount="0" stopTime="0.00" timeLoss="3.80" rerouteNo="0" devices="tripinfo_se_0.2" vType="vt_se" speedFactor="1.08" vaporized=""/>
    <tripinfo id="sn_0.1" depart="15.00" departLane="E2_0" departPos="0.00" departSpeed="0.00" departDelay="0.00" arrival="59.00" arrivalLane="E3_0" arrivalPos="196.00" arrivalSpeed="13.81" duration="44.00" routeLength="400.00" waitingTime="7.00" waitingCount="1" stopTime="0.00" timeLoss="16.69" rerouteNo="0" devices="tripinfo_sn_0.1" vType="DEFAULT_VEHTYPE" speedFactor="1.06" vaporized=""/>
    <tripinfo id="sn_0.2" depart="18.00" departLane="E2_0" departPos="0.00" departSpeed="0.00" departDelay="0.00" arrival="62.00" arrivalLane="E3_0" arrivalPos="196.00" arrivalSpeed="12.24" duration="44.00" routeLength="400.00" waitingTime="3.00" waitingCount="1" stopTime="0.00" timeLoss="13.88" rerouteNo="0" devices="tripinfo_sn_0.2" vType="DEFAULT_VEHTYPE" speedFactor="0.96" vaporized=""/>
    <tripinfo id="se_0.4" depart="30.00" departLane="E2_0" departPos="33.21" departSpeed="0.00" departDelay="0.00" arrival="63.00" arrivalLane="E1_0" arrivalPos="189.60" arrivalSpeed="12.89" duration="33.00" routeLength="358.22" waitingTime="0.00" waitingCount="0" stopTime="0.00" timeLoss="5.64" rerouteNo="0" devices="tripinfo_se_0.4" vType="vt_se" speedFactor="0.97" vaporized=""/>
    <tripinfo id="sn_0.3" depart="23.00" departLane="E2_0" departPos="0.00" departSpeed="0.00" departDelay="0.00" arrival="64.00" arrivalLane="E3_0" arrivalPos="196.00" arrivalSpeed="13.49" duration="41.00" routeLength="400.00" waitingTime="2.00" waitingCount="2" stopTime="0.00" timeLoss="11.95" rerouteNo="0" devices="tripinfo_sn_0.3" vType="DEFAULT_VEHTYPE" speedFactor="1.01" vaporized=""/>
    <tripinfo id="se_0.3" depart="27.00" departLane="E2_0" departPos="7.60" departSpeed="0.00" departDelay="0.00" arrival="66.00" arrivalLane="E1_0" arrivalPos="189.60" arrivalSpeed="12.40" duration="39.00" routeLength="383.83" waitingTime="0.00" waitingCount="0" stopTime="0.00" timeLoss="8.12" rerouteNo="0" devices="tripinfo_se_0.3" vType="vt_se" speedFactor="0.90" vaporized=""/>
    <tripinfo id="sn_0.6" depart="31.00" departLane="E2_0" departPos="44.06" departSpeed="0.00" departDelay="0.00" arrival="66.00" arrivalLane="E3_0" arrivalPos="196.00" arrivalSpeed="13.59" duration="35.00" routeLength="355.94" waitingTime="0.00" waitingCount="0" stopTime="0.00" timeLoss="9.68" rerouteNo="0" devices="tripinfo_sn_0.6" vType="DEFAULT_VEHTYPE" speedFactor="1.04" vaporized=""/>
    <tripinfo id="se_0.5" depart="36.00" departLane="E2_0" departPos="20.35" departSpeed="0.00" departDelay="0.00" arrival="68.00" arrivalLane="E1_0" arrivalPos="189.60" arrivalSpeed="13.27" duration="32.00" routeLength="371.08" waitingTime="0.00" waitingCount="0" stopTime="0.00" timeLoss="4.89" rerouteNo="0" devices="tripinfo_se_0.5" vType="vt_se" speedFactor="1.00" vaporized=""/>
    <tripinfo id="we_0.1" depart="35.00" departLane="E0_0" departPos="0.00" departSpeed="0.00" departDelay="0.00" arrival="70.00" arrivalLane="E1_0" arrivalPos="189.60" arrivalSpeed="13.28" duration="35.00" routeLength="400.00" waitingTime="0.00" waitingCount="0" stopTime="0.00" timeLoss="4.59" rerouteNo="0" devices="tripinfo_we_0.1" vType="DEFAULT_VEHTYPE" speedFactor="0.97" vaporized=""/>
    <tripinfo id="se_0.6" depart="45.00" departLane="E2_0" departPos="0.00" departSpeed="0.00" departDelay="0.00" arrival="77.00" arrivalLane="E1_0" arrivalPos="189.60" arrivalSpeed="15.45" duration="32.00" routeLength="391.43" waitingTime="0.00" waitingCount="0" stopTime="0.00" timeLoss="6.86" rerouteNo="0" devices="tripinfo_se_0.6" vType="vt_se" speedFactor="1.14" vaporized=""/>
    <tripinfo id="sn_0.4" depart="27.00" departLane="E2_0" departPos="0.00" departSpeed="0.00" departDelay="0.00" arrival="80.00" arrivalLane="E3_0" arrivalPos="196.00" arrivalSpeed="12.98" duration="53.00" routeLength="400.00" waitingTime="9.00" waitingCount="2" stopTime="0.00" timeLoss="22.84" rerouteNo="0" devices="tripinfo_sn_0.4" vType="DEFAULT_VEHTYPE" speedFactor="0.96" vaporized=""/>
    <tripinfo id="sn_0.5" depart="29.00" departLane="E2_0" departPos="0.00" departSpeed="0.00" departDelay="0.00" arrival="82.00" arrivalLane="E3_0" arrivalPos="196.00" arrivalSpeed="14.19" duration="53.00" routeLength="400.00" waitingTime="7.00" waitingCount="1" stopTime="0.00" timeLoss="25.59" rerouteNo="0" devices="tripinfo_sn_0.5" vType="DEFAULT_VEHTYPE" speedFactor="1.07" vaporized=""/>
    <tripinfo id="sn_0.7" depart="35.00" departLane="E2_0" departPos="0.00" departSpeed="0.00" departDelay="0.00" arrival="86.00" arrivalLane="E3_0" arrivalPos="196.00" arrivalSpeed="11.68" duration="51.00" routeLength="400.00" waitingTime="6.00" waitingCount="1" stopTime="0.00" timeLoss="17.10" rerouteNo="0" devices="tripinfo_sn_0.7" vType="DEFAULT_VEHTYPE" speedFactor="0.87" vaporized=""/>
    <tripinfo id="we_0.3" depart="59.00" departLane="E0_0" departPos="28.59" departSpeed="0.00" departDelay="0.00" arrival="86.00" arrivalLane="E1_0" arrivalPos="189.60" arrivalSpeed="16.78" duration="27.00" routeLength="371.41" waitingTime="0.00" waitingCount="0" stopTime="0.00" timeLoss="4.88" rerouteNo="0" devices="tripinfo_we_0.3" vType="DEFAULT_VEHTYPE" speedFactor="1.22" vaporized=""/>
    <tripinfo id="sn_0.8" depart="36.00" departLane="E2_0" departPos="12.75" departSpeed="0.00" departDelay="0.00" arrival="88.00" arrivalLane="E3_0" arrivalPos="196.00" arrivalSpeed="11.37" duration="52.00" routeLength="387.25" waitingTime="7.00" waitingCount="2" stopTime="0.00" timeLoss="19.32" rerouteNo="0" devices="tripinfo_sn_0.8" vType="DEFAULT_VEHTYPE" speedFactor="0.87" vaporized=""/>
    <tripinfo id="we_0.2" depart="56.00" departLane="E0_0" departPos="0.00" departSpeed="0.00" departDelay="0.00" arrival="94.00" arrivalLane="E1_0" arrivalPos="189.60" arrivalSpeed="12.01" duration="38.00" routeLength="400.00" waitingTime="0.00" waitingCount="0" stopTime="0.00" timeLoss="7.09" rerouteNo="0" devices="tripinfo_we_0.2" vType="DEFAULT_VEHTYPE" speedFactor="0.94" vaporized=""/>
    <tripinfo id="se_0.8" depart="62.00" departLane="E2_0" departPos="15.73" departSpeed="0.00" departDelay="0.00" arrival="96.00" arrivalLane="E1_0" arrivalPos="189.60" arrivalSpeed="13.19" duration="34.00" routeLength="375.70" waitingTime="0.00" waitingCount="0" stopTime="0.00" timeLoss="5.48" rerouteNo="0" devices="tripinfo_se_0.8" vType="vt_se" speedFactor="0.97" vaporized=""/>
    <tripinfo id="se_0.7" depart="60.00" departLane="E2_0" departPos="0.00" departSpeed="0.00" departDelay="0.00" arrival="97.00" arrivalLane="E1_0" arrivalPos="189.60" arrivalSpeed="14.50" duration="37.00" routeLength="391.43" waitingTime="0.00" waitingCount="0" stopTime="0.00" timeLoss="9.97" rerouteNo="0" devices="tripinfo_se_0.7" vType="vt_se" speedFactor="1.05" vaporized=""/>
    <tripinfo id="se_0.9" depart="66.00" departLane="E2_0" departPos="0.00" departSpeed="0.00" departDelay="0.00" arrival="99.00" arrivalLane="E1_0" arrivalPos="189.60" arrivalSpeed="13.03" duration="33.00" routeLength="391.43" waitingTime="0.00" waitingCount="0" stopTime="0.00" timeLoss="4.91" rerouteNo="0" devices="tripinfo_se_0.9" vType="vt_se" speedFactor="1.01" vaporized=""/>
    <tripinfo id="sn_0.9" depart="41.00" departLane="E2_0" departPos="0.00" departSpeed="0.00" departDelay="0.00" arrival="100.00" arrivalLane="E3_0" arrivalPos="196.00" arrivalSpeed="13.73" duration="59.00" routeLength="400.00" waitingTime="15.00" waitingCount="2" stopTime="0.00" timeLoss="29.72" rerouteNo="0" devices="tripinfo_sn_0.9" vType="DEFAULT_VEHTYPE" speedFactor="1.01" vaporized=""/>
    <tripinfo id="sn_0.10" depart="47.00" departLane="E2_0" departPos="19.03" departSpeed="0.00" departDelay="0.00" arrival="104.00" arrivalLane="E3_0" arrivalPos="196.00" arrivalSpeed="12.06" duration="57.00" routeLength="380.97" waitingTime="9.00" waitingCount="2" stopTime="0.00" timeLoss="26.24" rerouteNo="0" devices="tripinfo_sn_0.10" vType="DEFAULT_VEHTYPE" speedFactor="0.92" vaporized=""/>
    <tripinfo id="sn_0.11" depart="49.00" departLane="E2_0" departPos="0.00" departSpeed="0.00" departDelay="0.00" arrival="105.00" arrivalLane="E3_0" arrivalPos="196.00" arrivalSpeed="12.91" duration="56.00" routeLength="400.00" waitingTime="8.00" waitingCount="2" stopTime="0.00" timeLoss="27.47" rerouteNo="0" devices="tripinfo_sn_0.11" vType="DEFAULT_VEHTYPE" speedFactor="1.02" vaporized=""/>
    <tripinfo id="sn_0.12" depart="51.00" departLane="E2_0" departPos="0.00" departSpeed="0.00" departDelay="0.00" arrival="107.00" arrivalLane="E3_0" arrivalPos="196.00" arrivalSpeed="13.79" duration="56.00" routeLength="400.00" waitingTime="6.00" waitingCount="1" stopTime="0.00" timeLoss="28.19" rerouteNo="0" devices="tripinfo_sn_0.12" vType="DEFAULT_VEHTYPE" speedFactor="1.06" vaporized=""/>
    <tripinfo id="we_0.4" depart="66.00" departLane="E0_0" departPos="0.00" departSpeed="0.00" departDelay="0.00" arrival="111.00" arrivalLane="E1_0" arrivalPos="189.60" arrivalSpeed="12.25" duration="45.00" routeLength="400.00" waitingTime="5.00" waitingCount="1" stopTime="0.00" timeLoss="12.93" rerouteNo="0" devices="tripinfo_we_0.4" vType="DEFAULT_VEHTYPE" speedFactor="0.90" vaporized=""/>
    <tripinfo id="se_0.11" depart="88.00" departLane="E2_0" departPos="16.86" departSpeed="0.00" departDelay="0.00" arrival="117.00" arrivalLane="E1_0" arrivalPos="189.60" arrivalSpeed="14.19" duration="29.00" routeLength="374.57" waitingTime="0.00" waitingCount="0" stopTime="0.00" timeLoss="4.39" rerouteNo="0" devices="tripinfo_se_0.11" vType="vt_se" speedFactor="1.10" vaporized=""/>
    <tripinfo id="sn_0.13" depart="71.00" departLane="E2_0" departPos="0.00" departSpeed="0.00" departDelay="0.00" arrival="119.00" arrivalLane="E3_0" arrivalPos="196.00" arrivalSpeed="14.94" duration="48.00" routeLength="400.00" waitingTime="8.00" waitingCount="1" stopTime="0.00" timeLoss="20.68" rerouteNo="0" devices="tripinfo_sn_0.13" vType="DEFAULT_VEHTYPE" speedFactor="1.08" vaporized=""/>
    <tripinfo id="se_0.13" depart="103.00" departLane="E2_0" departPos="0.00" departSpeed="0.00" departDelay="0.00" arrival="120.00" arrivalLane="E1_0" arrivalPos="189.60" arrivalSpeed="15.36" duration="17.00" routeLength="391.43" waitingTime="0.00" waitingCount="0" stopTime="0.00" timeLoss="3.70" rerouteNo="0" devices="tripinfo_se_0.13" vType="vt_se" speedFactor="1.12" vaporized="teleport"/>
    <tripinfo id="sn_0.14" depart="78.00" departLane="E2_0" departPos="0.00" departSpeed="0.00" departDelay="0.00" arrival="121.00" arrivalLane="E3_0" arrivalPos="196.00" arrivalSpeed="14.15" duration="43.00" routeLength="400.00" waitingTime="5.00" waitingCount="1" stopTime="0.00" timeLoss="16.18" rerouteNo="0" devices="tripinfo_sn_0.14" vType="DEFAULT_VEHTYPE" speedFactor="1.10" vaporized=""/>
    <tripinfo id="sn_0.15" depart="82.00" departLane="E2_0" departPos="0.00" departSpeed="0.00" departDelay="0.00" arrival="123.00" arrivalLane="E3_0" arrivalPos="196.00" arrivalSpeed="14.87" duration="41.00" routeLength="400.00" waitingTime="3.00" waitingCount="1" stopTime="0.00" timeLoss="14.01" rerouteNo="0" devices="tripinfo_sn_0.15" vType="DEFAULT_VEHTYPE" speedFactor="1.10" vaporized=""/>
    <tripinfo id="se_0.10" depart="86.00" departLane="E2_0" departPos="0.00" departSpeed="0.00" departDelay="0.00" arrival="123.00" arrivalLane="E1_0" arrivalPos="189.60" arrivalSpeed="12.49" duration="37.00" routeLength="391.43" waitingTime="0.00" waitingCount="0" stopTime="0.00" timeLoss="6.74" rerouteNo="0" devices="tripinfo_se_0.10" vType="vt_se" speedFactor="0.94" vaporized=""/>
    <tripinfo id="sn_0.16" depart="90.00" departLane="E2_0" departPos="0.00" departSpeed="0.00" departDelay="0.00" arrival="124.00" arrivalLane="E3_0" arrivalPos="196.00" arrivalSpeed="13.92" duration="34.00" routeLength="400.00" waitingTime="0.00" waitingCount="0" stopTime="0.00" timeLoss="7.43" rerouteNo="0" devices="tripinfo_sn_0.16" vType="DEFAULT_VEHTYPE" speedFactor="1.09" vaporized=""/>
    <tripinfo id="we_0.5" depart="93.00" departLane="E0_0" departPos="0.00" departSpeed="0.00" departDelay="0.00" arrival="128.00" arrivalLane="E1_0" arrivalPos="189.60" arrivalSpeed="15.22" duration="35.00" routeLength="400.00" waitingTime="0.00" waitingCount="0" stopTime="0.00" timeLoss="8.24" rerouteNo="0" devices="tripinfo_we_0.5" vType="DEFAULT_VEHTYPE" speedFactor="1.10" vaporized=""/>
    <tripinfo id="se_0.12" depart="99.00" departLane="E2_0" departPos="0.00" departSpeed="0.00" departDelay="0.00" arrival="131.00" arrivalLane="E1_0" arrivalPos="189.60" arrivalSpeed="13.39" duration="32.00" routeLength="391.43" waitingTime="0.00" waitingCount="0" stopTime="0.00" timeLoss="4.30" rerouteNo="0" devices="tripinfo_se_0.12" vType="vt_se" speedFactor="1.05" vaporized=""/>
    <tripinfo id="we_0.7" depart="102.00" departLane="E0_0" departPos="12.23" departSpeed="0.00" departDelay="0.00" arrival="133.00" arrivalLane="E1_0" arrivalPos="189.60" arrivalSpeed="14.60" duration="31.00" routeLength="387.77" waitingTime="0.00" waitingCount="0" stopTime="0.00" timeLoss="4.63" rerouteNo="0" devices="tripinfo_we_0.7" vType="DEFAULT_VEHTYPE" speedFactor="1.06" vaporized=""/>
    <tripinfo id="we_0.6" depart="101.00" departLane="E0_0" departPos="0.00" departSpeed="0.00" departDelay="0.00" arrival="135.00" arrivalLane="E1_0" arrivalPos="189.60" arrivalSpeed="15.91" duration="34.00" routeLength="400.00" waitingTime="0.00" waitingCount="0" stopTime="0.00" timeLoss="9.16" rerouteNo="0" devices="tripinfo_we_0.6" vType="DEFAULT_VEHTYPE" speedFactor="1.18" vaporized=""/>
    <tripinfo id="we_0.8" depart="107.00" departLane="E0_0" departPos="0.00" departSpeed="0.00" departDelay="0.00" arrival="143.00" arrivalLane="E1_0" arrivalPos="189.60" arrivalSpeed="12.75" duration="36.00" routeLength="400.00" waitingTime="0.00" waitingCount="0" stopTime="0.00" timeLoss="4.47" rerouteNo="0" devices="tripinfo_we_0.8" vType="DEFAULT_VEHTYPE" speedFactor="0.94" vaporized=""/>
    <tripinfo id="se_0.14" depart="113.00" departLane="E2_0" departPos="0.00" departSpeed="0.00" departDelay="0.00" arrival="150.00" arrivalLane="E1_0" arrivalPos="189.60" arrivalSpeed="11.67" duration="37.00" routeLength="391.43" waitingTime="0.00" waitingCount="0" stopTime="0.00" timeLoss="4.54" rerouteNo="0" devices="tripinfo_se_0.14" vType="vt_se" speedFactor="0.87" vaporized=""/>
    <tripinfo id="se_0.15" depart="117.00" departLane="E2_0" departPos="0.00" departSpeed="0.00" departDelay="0.00" arrival="152.00" arrivalLane="E1_0" arrivalPos="189.60" arrivalSpeed="15.35" duration="35.00" routeLength="391.43" waitingTime="0.00" waitingCount="0" stopTime="0.00" timeLoss="11.50" rerouteNo="0" devices="tripinfo_se_0.15" vType="vt_se" speedFactor="1.23" vaporized=""/>
    <tripinfo id="se_0.16" depart="120.00" departLane="E2_0" departPos="0.00" departSpeed="0.00" departDelay="0.00" arrival="154.00" arrivalLane="E1_0" arrivalPos="189.60" arrivalSpeed="12.77" duration="34.00" routeLength="391.43" waitingTime="0.00" waitingCount="0" stopTime="0.00" timeLoss="5.03" rerouteNo="0" devices="tripinfo_se_0.16" vType="vt_se" speedFactor="1.00" vaporized=""/>
    <tripinfo id="we_0.9" depart="123.00" departLane="E0_0" departPos="0.00" departSpeed="0.00" departDelay="0.00" arrival="158.00" arrivalLane="E1_0" arrivalPos="189.60" arrivalSpeed="12.42" duration="35.00" routeLength="400.00" waitingTime="0.00" waitingCount="0" stopTime="0.00" timeLoss="4.72" rerouteNo="0" devices="tripinfo_we_0.9" vType="DEFAULT_VEHTYPE" speedFactor="0.96" vaporized=""/>
    <tripinfo id="se_0.18" depart="128.00" departLane="E2_0" departPos="19.34" departSpeed="0.00" departDelay="0.00" arrival="160.00" arrivalLane="E1_0" arrivalPos="189.60" arrivalSpeed="12.90" duration="32.00" routeLength="372.09" waitingTime="0.00" waitingCount="0" stopTime="0.00" timeLoss="4.34" rerouteNo="0" devices="tripinfo_se_0.18" vType="vt_se" speedFactor="0.99" vaporized=""/>
    <tripinfo id="se_0.17" depart="126.00" departLane="E2_0" departPos="0.00" departSpeed="0.00" departDelay="0.00" arrival="162.00" arrivalLane="E1_0" arrivalPos="189.60" arrivalSpeed="15.25" duration="36.00" routeLength="391.43" waitingTime="0.00" waitingCount="0" stopTime="0.00" timeLoss="11.32" rerouteNo="0" devices="tripinfo_se_0.17" vType="vt_se" speedFactor="1.18" vaporized=""/>
    <tripinfo id="se_0.19" depart="130.00" departLane="E2_0" departPos="0.00" departSpeed="0.00" departDelay="0.00" arrival="166.00" arrivalLane="E1_0" arrivalPos="189.60" arrivalSpeed="11.51" duration="36.00" routeLength="391.43" waitingTime="0.00" waitingCount="0" stopTime="0.00" timeLoss="4.48" rerouteNo="0" devices="tripinfo_se_0.19" vType="vt_se" speedFactor="0.92" vaporized=""/>
    <tripinfo id="we_0.10" depart="132.00" departLane="E0_0" departPos="0.00" departSpeed="0.00" departDelay="0.00" arrival="167.00" arrivalLane="E1_0" arrivalPos="189.60" arrivalSpeed="13.60" duration="35.00" routeLength="400.00" waitingTime="0.00" waitingCount="0" stopTime="0.00" timeLoss="6.38" rerouteNo="0" devices="tripinfo_we_0.10" vType="DEFAULT_VEHTYPE" speedFactor="1.01" vaporized=""/>
    <tripinfo id="sn_0.17" depart="146.00" departLane="E2_0" departPos="0.00" departSpeed="0.00" departDelay="0.00" arrival="177.00" arrivalLane="E3_0" arrivalPos="196.00" arrivalSpeed="15.58" duration="31.00" routeLength="400.00" waitingTime="1.00" waitingCount="1" stopTime="0.00" timeLoss="5.14" rerouteNo="0" devices="tripinfo_sn_0.17" vType="DEFAULT_VEHTYPE" speedFactor="1.14" vaporized=""/>
    <tripinfo id="se_0.20" depart="134.00" departLane="E2_0" departPos="0.00" departSpeed="0.00" departDelay="0.00" arrival="179.00" arrivalLane="E1_0" arrivalPos="189.60" arrivalSpeed="14.34" duration="45.00" routeLength="391.43" waitingTime="8.00" waitingCount="1" stopTime="0.00" timeLoss="18.73" rerouteNo="0" devices="tripinfo_se_0.20" vType="vt_se" speedFactor="1.11" vaporized=""/>
    <tripinfo id="se_0.21" depart="146.00" departLane="E2_0" departPos="7.60" departSpeed="0.00" departDelay="0.00" arrival="186.00" arrivalLane="E1_0" arrivalPos="189.60" arrivalSpeed="9.84" duration="40.00" routeLength="383.83" waitingTime="0.00" waitingCount="0" stopTime="0.00" timeLoss="5.13" rerouteNo="0" devices="tripinfo_se_0.21" vType="vt_se" speedFactor="0.80" vaporized=""/>
    <tripinfo id="we_0.12" depart="144.00" departLane="E0_0" departPos="15.51" departSpeed="0.00" departDelay="0.00" arrival="190.00" arrivalLane="E1_0" arrivalPos="189.60" arrivalSpeed="12.85" duration="46.00" routeLength="384.49" waitingTime="6.00" waitingCount="1" stopTime="0.00" timeLoss="17.23" rerouteNo="0" devices="tripinfo_we_0.12" vType="DEFAULT_VEHTYPE" speedFactor="0.97" vaporized=""/>
    <tripinfo id="we_0.11" depart="142.00" departLane="E0_0" departPos="0.00" departSpeed="0.00" departDelay="0.00" arrival="193.00" arrivalLane="E1_0" arrivalPos="189.60" arrivalSpeed="12.53" duration="51.00" routeLength="400.00" waitingTime="6.00" waitingCount="1" stopTime="0.00" timeLoss="19.35" rerouteNo="0" devices="tripinfo_we_0.11" vType="DEFAULT_VEHTYPE" speedFactor="0.94" vaporized=""/>
    <tripinfo id="se_0.22" depart="159.00" departLane="E2_0" departPos="0.00" departSpeed="0.00" departDelay="0.00" arrival="195.00" arrivalLane="E1_0" arrivalPos="189.60" arrivalSpeed="11.70" duration="36.00" routeLength="391.43" waitingTime="0.00" waitingCount="0" stopTime="0.00" timeLoss="5.03" rerouteNo="0" devices="tripinfo_se_0.22" vType="vt_se" speedFactor="0.93" vaporized=""/>
    <tripinfo id="we_0.13" depart="147.00" departLane="E0_0" departPos="0.00" departSpeed="0.00" departDelay="0.00" arrival="203.00" arrivalLane="E1_0" arrivalPos="189.60" arrivalSpeed="9.65" duration="56.00" routeLength="400.00" waitingTime="2.00" waitingCount="2" stopTime="0.00" timeLoss="14.22" rerouteNo="0" devices="tripinfo_we_0.13" vType="DEFAULT_VEHTYPE" speedFactor="0.70" vaporized=""/>
    <tripinfo id="se_0.23" depart="164.00" departLane="E2_0" departPos="0.00" departSpeed="0.00" departDelay="0.00" arrival="205.00" arrivalLane="E1_0" arrivalPos="189.60" arrivalSpeed="12.39" duration="41.00" routeLength="391.43" waitingTime="0.00" waitingCount="0" stopTime="0.00" timeLoss="11.13" rerouteNo="0" devices="tripinfo_se_0.23" vType="vt_se" speedFactor="0.97" vaporized=""/>
    <tripinfo id="se_0.24" depart="168.00" departLane="E2_0" departPos="0.00" departSpeed="0.00" departDelay="0.00" arrival="207.00" arrivalLane="E1_0" arrivalPos="189.60" arrivalSpeed="12.30" duration="39.00" routeLength="391.43" waitingTime="0.00" waitingCount="0" stopTime="0.00" timeLoss="8.23" rerouteNo="0" devices="tripinfo_se_0.24" vType="vt_se" speedFactor="0.94" vaporized=""/>
    <tripinfo id="we_0.14" depart="164.00" departLane="E0_0" departPos="0.00" departSpeed="0.00" departDelay="0.00" arrival="209.00" arrivalLane="E1_0" arrivalPos="189.60" arrivalSpeed="13.01" duration="45.00" routeLength="400.00" waitingTime="7.00" waitingCount="1" stopTime="0.00" timeLoss="16.50" rerouteNo="0" devices="tripinfo_we_0.14" vType="DEFAULT_VEHTYPE" speedFactor="1.03" vaporized=""/>
    <tripinfo id="we_0.15" depart="180.00" departLane="E0_0" departPos="0.00" departSpeed="0.00" departDelay="0.00" arrival="211.00" arrivalLane="E1_0" arrivalPos="189.60" arrivalSpeed="15.15" duration="31.00" routeLength="400.00" waitingTime="0.00" waitingCount="0" stopTime="0.00" timeLoss="4.56" rerouteNo="0" devices="tripinfo_we_0.15" vType="DEFAULT_VEHTYPE" speedFactor="1.11" vaporized=""/>
    <tripinfo id="se_0.25" depart="180.00" departLane="E2_0" departPos="18.20" departSpeed="0.00" departDelay="0.00" arrival="215.00" arrivalLane="E1_0" arrivalPos="189.60" arrivalSpeed="12.37" duration="35.00" routeLength="373.23" waitingTime="0.00" waitingCount="0" stopTime="0.00" timeLoss="4.71" rerouteNo="0" devices="tripinfo_se_0.25" vType="vt_se" speedFactor="0.90" vaporized=""/>
    <tripinfo id="se_0.26" depart="181.00" departLane="E2_0" departPos="7.60" departSpeed="0.00" departDelay="0.00" arrival="219.00" arrivalLane="E1_0" arrivalPos="189.60" arrivalSpeed="10.44" duration="38.00" routeLength="383.83" waitingTime="0.00" waitingCount="0" stopTime="0.00" timeLoss="4.79" rerouteNo="0" devices="tripinfo_se_0.26" vType="vt_se" speedFactor="0.83" vaporized=""/>
    <tripinfo id="sn_0.19" depart="174.00" departLane="E2_0" departPos="10.46" departSpeed="0.00" departDelay="0.00" arrival="221.00" arrivalLane="E3_0" arrivalPos="196.00" arrivalSpeed="11.47" duration="47.00" routeLength="389.54" waitingTime="8.00" waitingCount="1" stopTime="0.00" timeLoss="16.18" rerouteNo="0" devices="tripinfo_sn_0.19" vType="DEFAULT_VEHTYPE" speedFactor="0.92" vaporized=""/>
    <tripinfo id="sn_0.20" depart="175.00" departLane="E2_0" departPos="0.00" departSpeed="0.00" departDelay="0.00" arrival="223.00" arrivalLane="E3_0" arrivalPos="196.00" arrivalSpeed="14.79" duration="48.00" routeLength="400.00" waitingTime="6.00" waitingCount="1" stopTime="0.00" timeLoss="21.55" rerouteNo="0" devices="tripinfo_sn_0.20" vType="DEFAULT_VEHTYPE" speedFactor="1.12" vaporized=""/>
    <tripinfo id="sn_0.18" depart="173.00" departLane="E2_0" departPos="0.00" departSpeed="0.00" departDelay="0.00" arrival="225.00" arrivalLane="E3_0" arrivalPos="196.00" arrivalSpeed="12.41" duration="52.00" routeLength="400.00" waitingTime="6.00" waitingCount="1" stopTime="0.00" timeLoss="21.23" rerouteNo="0" devices="tripinfo_sn_0.18" vType="DEFAULT_VEHTYPE" speedFactor="0.96" vaporized=""/>
    <tripinfo id="se_0.29" depart="204.00" departLane="E2_0" departPos="0.00" departSpeed="0.00" departDelay="0.00" arrival="227.00" arrivalLane="E1_0" arrivalPos="189.60" arrivalSpeed="13.67" duration="23.00" routeLength="391.43" waitingTime="0.00" waitingCount="0" stopTime="0.00" timeLoss="3.75" rerouteNo="0" devices="tripinfo_se_0.29" vType="vt_se" speedFactor="1.00" vaporized=""/>
    <tripinfo id="se_0.27" depart="196.00" departLane="E2_0" departPos="20.04" departSpeed="0.00" departDelay="0.00" arrival="229.00" arrivalLane="E1_0" arrivalPos="189.60" arrivalSpeed="11.95" duration="33.00" routeLength="371.39" waitingTime="0.00" waitingCount="0" stopTime="0.00" timeLoss="4.37" rerouteNo="0" devices="tripinfo_se_0.27" vType="vt_se" speedFactor="0.94" vaporized=""/>
    <tripinfo id="we_0.16" depart="188.00" departLane="E0_0" departPos="0.00" departSpeed="0.00" departDelay="0.00" arrival="234.00" arrivalLane="E1_0" arrivalPos="189.60" arrivalSpeed="12.69" duration="46.00" routeLength="400.00" waitingTime="3.00" waitingCount="2" stopTime="0.00" timeLoss="13.87" rerouteNo="0" devices="tripinfo_we_0.16" vType="DEFAULT_VEHTYPE" speedFactor="0.92" vaporized=""/>
    <tripinfo id="se_0.28" depart="198.00" departLane="E2_0" departPos="0.00" departSpeed="0.00" departDelay="0.00" arrival="236.00" arrivalLane="E1_0" arrivalPos="189.60" arrivalSpeed="13.08" duration="38.00" routeLength="391.43" waitingTime="0.00" waitingCount="0" stopTime="0.00" timeLoss="7.78" rerouteNo="0" devices="tripinfo_se_0.28" vType="vt_se" speedFactor="0.96" vaporized=""/>
    <tripinfo id="we_0.17" depart="199.00" departLane="E0_0" departPos="0.00" departSpeed="0.00" departDelay="0.00" arrival="238.00" arrivalLane="E1_0" arrivalPos="189.60" arrivalSpeed="12.40" duration="39.00" routeLength="400.00" waitingTime="1.00" waitingCount="1" stopTime="0.00" timeLoss="8.29" rerouteNo="0" devices="tripinfo_we_0.17" vType="DEFAULT_VEHTYPE" speedFactor="0.96" vaporized=""/>
    <tripinfo id="sn_0.21" depart="178.00" departLane="E2_0" departPos="0.00" departSpeed="0.00" departDelay="0.00" arrival="239.00" arrivalLane="E3_0" arrivalPos="196.00" arrivalSpeed="14.08" duration="61.00" routeLength="400.00" waitingTime="14.00" waitingCount="2" stopTime="0.00" timeLoss="33.94" rerouteNo="0" devices="tripinfo_sn_0.21" vType="DEFAULT_VEHTYPE" speedFactor="1.07" vaporized=""/>
    <tripinfo id="se_0.30" depart="214.00" departLane="E2_0" departPos="0.00" departSpeed="0.00" departDelay="0.00" arrival="243.00" arrivalLane="E1_0" arrivalPos="189.60" arrivalSpeed="15.86" duration="29.00" routeLength="391.43" waitingTime="0.00" waitingCount="0" stopTime="0.00" timeLoss="4.59" rerouteNo="0" devices="tripinfo_se_0.30" vType="vt_se" speedFactor="1.19" vaporized=""/>
    <tripinfo id="sn_0.22" depart="181.00" departLane="E2_0" departPos="0.00" departSpeed="0.00" departDelay="0.00" arrival="244.00" arrivalLane="E3_0" arrivalPos="196.00" arrivalSpeed="11.05" duration="63.00" routeLength="400.00" waitingTime="12.00" waitingCount="3" stopTime="0.00" timeLoss="29.05" rerouteNo="0" devices="tripinfo_sn_0.22" vType="DEFAULT_VEHTYPE" speedFactor="0.86" vaporized=""/>