<?xml version="1.0" encoding="UTF-8"?>

<!-- generated on 2023-06-26 17:40:46 by Eclipse SUMO GUI Version 1.17.0
<configuration xmlns:xsi="http://www.w3.org/2001/XMLSchema-instance" xsi:noNamespaceSchemaLocation="http://sumo.dlr.de/xsd/sumoConfiguration.xsd">

    <input>
        <net-file value="../nets/simple_intersection/simple_intersection.net.xml"/>
        <route-files value="../nets/simple_intersection/simple_intersection.rou.xml"/>
    </input>

    <output>
        <tripinfo-output value="../data/tripinfo.xml"/>
        <collision-output value="../data/collision.xml"/>
    </output>

    <processing>
        <collision.check-junctions value="true"/>
    </processing>

    <traci_server>
        <remote-port value="61107"/>
    </traci_server>

</configuration>
-->

<tripinfos xmlns:xsi="http://www.w3.org/2001/XMLSchema-instance" xsi:noNamespaceSchemaLocation="http://sumo.dlr.de/xsd/tripinfo_file.xsd">
    <tripinfo id="sn_0.1" depart="5.00" departLane="E2_0" departPos="17.10" departSpeed="0.00" departDelay="0.00" arrival="35.00" arrivalLane="E3_0" arrivalPos="196.00" arrivalSpeed="14.38" duration="30.00" routeLength="382.90" waitingTime="0.00" waitingCount="0" stopTime="0.00" timeLoss="4.17" rerouteNo="0" devices="tripinfo_sn_0.1" vType="DEFAULT_VEHTYPE" speedFactor="1.08" vaporized=""/>
    <tripinfo id="sn_0.0" depart="3.00" departLane="E2_0" departPos="0.00" departSpeed="0.00" departDelay="0.00" arrival="39.00" arrivalLane="E3_0" arrivalPos="196.00" arrivalSpeed="12.98" duration="36.00" routeLength="400.00" waitingTime="0.00" waitingCount="0" stopTime="0.00" timeLoss="6.77" rerouteNo="0" devices="tripinfo_sn_0.0" vType="DEFAULT_VEHTYPE" speedFactor="1.01" vaporized=""/>
    <tripinfo id="we_0.1" depart="1.00" departLane="E0_0" departPos="12.28" departSpeed="0.00" departDelay="0.00" arrival="49.00" arrivalLane="E1_0" arrivalPos="189.60" arrivalSpeed="11.76" duration="48.00" routeLength="387.72" waitingTime="8.00" waitingCount="1" stopTime="0.00" timeLoss="17.48" rerouteNo="0" devices="tripinfo_we_0.1" vType="DEFAULT_VEHTYPE" speedFactor="0.94" vaporized=""/>
    <tripinfo id="we_0.0" depart="0.00" departLane="E0_0" departPos="0.00" departSpeed="0.00" departDelay="0.00" arrival="50.00" arrivalLane="E1_0" arrivalPos="189.60" arrivalSpeed="13.67" duration="50.00" routeLength="400.00" waitingTime="8.00" waitingCount="1" stopTime="0.00" timeLoss="22.72" rerouteNo="0" devices="tripinfo_we_0.0" vType="DEFAULT_VEHTYPE" speedFactor="1.06" vaporized=""/>
    <tripinfo id="we_0.2" depart="6.00" departLane="E0_0" departPos="0.00" departSpeed="0.00" departDelay="0.00" arrival="52.00" arrivalLane="E1_0" arrivalPos="189.60" arrivalSpeed="13.48" duration="46.00" routeLength="400.00" waitingTime="6.00" waitingCount="1" stopTime="0.00" timeLoss="17.62" rerouteNo="0" devices="tripinfo_we_0.2" vType="DEFAULT_VEHTYPE" speedFactor="1.03" vaporized=""/>
    <tripinfo id="we_0.3" depart="11.00" departLane="E0_0" departPos="0.00" departSpeed="0.00" departDelay="0.00" arrival="54.00" arrivalLane="E1_0" arrivalPos="189.60" arrivalSpeed="14.48" duration="43.00" routeLength="400.00" waitingTime="3.00" waitingCount="1" stopTime="0.00" timeLoss="14.66" rerouteNo="0" devices="tripinfo_we_0.3" vType="DEFAULT_VEHTYPE" speedFactor="1.05" vaporized=""/>
    <tripinfo id="we_0.4" depart="25.00" departLane="E0_0" departPos="0.00" departSpeed="0.00" departDelay="0.00" arrival="57.00" arrivalLane="E1_0" arrivalPos="189.60" arrivalSpeed="13.28" duration="32.00" routeLength="400.00" waitingTime="0.00" waitingCount="0" stopTime="0.00" timeLoss="4.03" rerouteNo="0" devices="tripinfo_we_0.4" vType="DEFAULT_VEHTYPE" speedFactor="1.05" vaporized=""/>
    <tripinfo id="we_0.5" depart="30.00" departLane="E0_0" departPos="0.00" departSpeed="0.00" departDelay="0.00" arrival="60.00" arrivalLane="E1_0" arrivalPos="189.60" arrivalSpeed="15.26" duration="30.00" routeLength="400.00" waitingTime="0.00" waitingCount="0" stopTime="0.00" timeLoss="4.36" rerouteNo="0" devices="tripinfo_we_0.5" vType="DEFAULT_VEHTYPE" speedFactor="1.12" vaporized=""/>
    <tripinfo id="se_0.2" depart="21.00" departLane="E2_0" departPos="0.00" departSpeed="0.00" departDelay="0.00" arrival="70.00" arrivalLane="E1_0" arrivalPos="189.60" arrivalSpeed="5.14" duration="49.00" routeLength="391.43" waitingTime="19.00" waitingCount="1" stopTime="0.00" timeLoss="32.99" rerouteNo="0" devices="tripinfo_se_0.2" vType="vt_se" speedFactor="0.94" vaporized="teleport"/>
    <tripinfo id="se_0.0" depart="10.00" departLane="E2_0" departPos="0.00" departSpeed="0.00" departDelay="0.00" arrival="81.00" arrivalLane="E1_0" arrivalPos="189.60" arrivalSpeed="11.53" duration="71.00" routeLength="391.43" waitingTime="28.00" waitingCount="1" stopTime="0.00" timeLoss="35.83" rerouteNo="0" devices="tripinfo_se_0.0" vType="vt_se" speedFactor="0.83" vaporized=""/>
    <tripinfo id="se_0.1" depart="16.00" departLane="E2_0" departPos="0.00" departSpeed="0.00" departDelay="0.00" arrival="83.00" arrivalLane="E1_0" arrivalPos="189.60" arrivalSpeed="11.83" duration="67.00" routeLength="391.43" waitingTime="24.00" waitingCount="1" stopTime="0.00" timeLoss="33.68" rerouteNo="0" devices="tripinfo_se_0.1" vType="vt_se" speedFactor="0.89" vaporized=""/>
    <tripinfo id="se_0.3" depart="24.00" departLane="E2_0" departPos="28.56" departSpeed="0.00" departDelay="0.00" arrival="84.00" arrivalLane="E1_0" arrivalPos="189.60" arrivalSpeed="13.55" duration="60.00" routeLength="362.87" waitingTime="22.00" waitingCount="1" stopTime="0.00" timeLoss="35.18" rerouteNo="0" devices="tripinfo_se_0.3" vType="vt_se" speedFactor="1.09" vaporized=""/>
    <tripinfo id="we_0.6" depart="47.00" departLane="E0_0" departPos="0.00" departSpeed="0.00" departDelay="0.00" arrival="87.00" arrivalLane="E1_0" arrivalPos="189.60" arrivalSpeed="11.59" duration="40.00" routeLength="400.00" waitingTime="1.00" waitingCount="1" stopTime="0.00" timeLoss="8.91" rerouteNo="0" devices="tripinfo_we_0.6" vType="DEFAULT_VEHTYPE" speedFactor="0.93" vaporized=""/>
    <tripinfo id="se_0.5" depart="52.00" departLane="E2_0" departPos="12.76" departSpeed="0.00" departDelay="0.00" arrival="90.00" arrivalLane="E1_0" arrivalPos="189.60" arrivalSpeed="12.43" duration="38.00" routeLength="378.67" waitingTime="0.00" waitingCount="0" stopTime="0.00" timeLoss="7.71" rerouteNo="0" devices="tripinfo_se_0.5" vType="vt_se" speedFactor="0.94" vaporized=""/>
    <tripinfo id="se_0.4" depart="51.00" departLane="E2_0" departPos="0.00" departSpeed="0.00" departDelay="0.00" arrival="94.00" arrivalLane="E1_0" arrivalPos="189.60" arrivalSpeed="11.69" duration="43.00" routeLength="391.43" waitingTime="0.00" waitingCount="0" stopTime="0.00" timeLoss="9.55" rerouteNo="0" devices="tripinfo_se_0.4" vType="vt_se" speedFactor="0.88" vaporized=""/>
    <tripinfo id="se_0.6" depart="67.00" departLane="E2_0" departPos="0.00" departSpeed="0.00" departDelay="0.00" arrival="98.00" arrivalLane="E1_0" arrivalPos="189.60" arrivalSpeed="16.03" duration="31.00" routeLength="391.43" waitingTime="0.00" waitingCount="0" stopTime="0.00" timeLoss="6.02" rerouteNo="0" devices="tripinfo_se_0.6" vType="vt_se" speedFactor="1.16" vaporized=""/>
    <tripinfo id="we_0.8" depart="69.00" departLane="E0_0" departPos="16.96" departSpeed="0.00" departDelay="0.00" arrival="102.00" arrivalLane="E1_0" arrivalPos="189.60" arrivalSpeed="13.76" duration="33.00" routeLength="383.04" waitingTime="0.00" waitingCount="0" stopTime="0.00" timeLoss="5.06" rerouteNo="0" devices="tripinfo_we_0.8" vType="DEFAULT_VEHTYPE" speedFactor="1.01" vaporized=""/>
    <tripinfo id="sn_0.2" depart="22.00" departLane="E2_0" departPos="11.77" departSpeed="0.00" departDelay="0.00" arrival="110.00" arrivalLane="E3_0" arrivalPos="196.00" arrivalSpeed="10.84" duration="88.00" routeLength="388.23" waitingTime="45.00" waitingCount="1" stopTime="0.00" timeLoss="55.32" rerouteNo="0" devices="tripinfo_sn_0.2" vType="DEFAULT_VEHTYPE" speedFactor="0.86" vaporized=""/>
    <tripinfo id="sn_0.3" depart="25.00" departLane="E2_0" departPos="0.00" departSpeed="0.00" departDelay="0.00" arrival="112.00" arrivalLane="E3_0" arrivalPos="196.00" arrivalSpeed="13.26" duration="87.00" routeLength="400.00" waitingTime="45.00" waitingCount="1" stopTime="0.00" timeLoss="58.51" rerouteNo="0" devices="tripinfo_sn_0.3" vType="DEFAULT_VEHTYPE" speedFactor="1.03" vaporized=""/>
    <tripinfo id="sn_0.4" depart="40.00" departLane="E2_0" departPos="0.00" departSpeed="0.00" departDelay="0.00" arrival="114.00" arrivalLane="E3_0" arrivalPos="196.00" arrivalSpeed="12.86" duration="74.00" routeLength="400.00" waitingTime="31.00" waitingCount="1" stopTime="0.00" timeLoss="44.31" rerouteNo="0" devices="tripinfo_sn_0.4" vType="DEFAULT_VEHTYPE" speedFactor="0.99" vaporized=""/>
    <tripinfo id="sn_0.5" depart="61.00" departLane="E2_0" departPos="0.00" departSpeed="0.00" departDelay="0.00" arrival="116.00" arrivalLane="E3_0" arrivalPos="196.00" arrivalSpeed="12.77" duration="55.00" routeLength="400.00" waitingTime="12.00" waitingCount="1" stopTime="0.00" timeLoss="23.47" rerouteNo="0" devices="tripinfo_sn_0.5" vType="DEFAULT_VEHTYPE" speedFactor="0.94" vaporized=""/>
    <tripinfo id="sn_0.6" depart="70.00" departLane="E2_0" departPos="0.00" departSpeed="0.00" departDelay="0.00" arrival="117.00" arrivalLane="E3_0" arrivalPos="196.00" arrivalSpeed="13.38" duration="47.00" routeLength="400.00" waitingTime="5.00" waitingCount="1" stopTime="0.00" timeLoss="17.36" rerouteNo="0" devices="tripinfo_sn_0.6" vType="DEFAULT_VEHTYPE" speedFactor="0.97" vaporized=""/>
    <tripinfo id="sn_0.8" depart="83.00" departLane="E2_0" departPos="35.79" departSpeed="0.00" departDelay="0.00" arrival="119.00" arrivalLane="E3_0" arrivalPos="196.00" arrivalSpeed="14.56" duration="36.00" routeLength="364.21" waitingTime="0.00" waitingCount="0" stopTime="0.00" timeLoss="12.36" rerouteNo="0" devices="tripinfo_sn_0.8" vType="DEFAULT_VEHTYPE" speedFactor="1.13" vaporized=""/>
    <tripinfo id="se_0.8" depart="81.00" departLane="E2_0" departPos="11.22" departSpeed="0.00" departDelay="0.00" arrival="121.00" arrivalLane="E1_0" arrivalPos="189.60" arrivalSpeed="11.71" duration="40.00" routeLength="380.21" waitingTime="1.00" waitingCount="1" stopTime="0.00" timeLoss="7.53" rerouteNo="0" devices="tripinfo_se_0.8" vType="vt_se" speedFactor="0.87" vaporized=""/>
    <tripinfo id="sn_0.7" depart="81.00" departLane="E2_0" departPos="18.82" departSpeed="0.00" departDelay="0.00" arrival="121.00" arrivalLane="E3_0" arrivalPos="196.00" arrivalSpeed="12.22" duration="40.00" routeLength="381.18" waitingTime="0.00" waitingCount="0" stopTime="0.00" timeLoss="9.76" rerouteNo="0" devices="tripinfo_sn_0.7" vType="DEFAULT_VEHTYPE" speedFactor="0.92" vaporized=""/>
    <tripinfo id="sn_0.10" depart="91.00" departLane="E2_0" departPos="12.70" departSpeed="0.00" departDelay="0.00" arrival="123.00" arrivalLane="E3_0" arrivalPos="196.00" arrivalSpeed="15.13" duration="32.00" routeLength="387.30" waitingTime="0.00" waitingCount="0" stopTime="0.00" timeLoss="7.70" rerouteNo="0" devices="tripinfo_sn_0.10" vType="DEFAULT_VEHTYPE" speedFactor="1.18" vaporized=""/>
    <tripinfo id="se_0.7" depart="80.00" departLane="E2_0" departPos="0.00" departSpeed="0.00" departDelay="0.00" arrival="125.00" arrivalLane="E1_0" arrivalPos="189.60" arrivalSpeed="10.37" duration="45.00" routeLength="391.43" waitingTime="0.00" waitingCount="0" stopTime="0.00" timeLoss="9.70" rerouteNo="0" devices="tripinfo_se_0.7" vType="vt_se" speedFactor="0.83" vaporized=""/>
    <tripinfo id="sn_0.9" depart="90.00" departLane="E2_0" departPos="0.00" departSpeed="0.00" departDelay="0.00" arrival="128.00" arrivalLane="E3_0" arrivalPos="196.00" arrivalSpeed="12.09" duration="38.00" routeLength="400.00" waitingTime="0.00" waitingCount="0" stopTime="0.00" timeLoss="6.53" rerouteNo="0" devices="tripinfo_sn_0.9" vType="DEFAULT_VEHTYPE" speedFactor="0.93" vaporized=""/>
    <tripinfo id="sn_0.11" depart="93.00" departLane="E2_0" departPos="0.00" departSpeed="0.00" departDelay="0.00" arrival="129.00" arrivalLane="E3_0" arrivalPos="196.00" arrivalSpeed="14.58" duration="36.00" routeLength="400.00" waitingTime="0.00" waitingCount="0" stopTime="0.00" timeLoss="10.99" rerouteNo="0" devices="tripinfo_sn_0.11" vType="DEFAULT_VEHTYPE" speedFactor="1.15" vaporized=""/>
    <tripinfo id="we_0.7" depart="67.00" departLane="E0_0" departPos="0.00" departSpeed="0.00" departDelay="0.00" arrival="138.00" arrivalLane="E1_0" arrivalPos="189.60" arrivalSpeed="13.88" duration="71.00" routeLength="400.00" waitingTime="28.00" waitingCount="1" stopTime="0.00" timeLoss="41.81" rerouteNo="0" devices="tripinfo_we_0.7" vType="DEFAULT_VEHTYPE" speedFactor="1.02" vaporized=""/>
    <tripinfo id="we_0.9" depart="73.00" departLane="E0_0" departPos="0.00" departSpeed="0.00" departDelay="0.00" arrival="142.00" arrivalLane="E1_0" arrivalPos="189.60" arrivalSpeed="11.92" duration="69.00" routeLength="400.00" waitingTime="27.00" waitingCount="1" stopTime="0.00" timeLoss="35.72" rerouteNo="0" devices="tripinfo_we_0.9" vType="DEFAULT_VEHTYPE" speedFactor="0.89" vaporized=""/>
    <tripinfo id="we_0.10" depart="81.00" departLane="E0_0" departPos="0.00" departSpeed="0.00" departDelay="0.00" arrival="143.00" arrivalLane="E1_0" arrivalPos="189.60" arrivalSpeed="12.90" duration="62.00" routeLength="400.00" waitingTime="21.00" waitingCount="1" stopTime="0.00" timeLoss="31.38" rerouteNo="0" devices="tripinfo_we_0.10" vType="DEFAULT_VEHTYPE" speedFactor="0.95" vaporized=""/>
    <tripinfo id="we_0.12" depart="103.00" departLane="E0_0" departPos="12.52" departSpeed="0.00" departDelay="0.00" arrival="145.00" arrivalLane="E1_0" arrivalPos="189.60" arrivalSpeed="12.78" duration="42.00" routeLength="387.48" waitingTime="3.00" waitingCount="1" stopTime="0.00" timeLoss="13.42" rerouteNo="0" devices="tripinfo_we_0.12" vType="DEFAULT_VEHTYPE" speedFactor="0.99" vaporized=""/>
    <tripinfo id="we_0.11" depart="102.00" departLane="E0_0" departPos="0.00" departSpeed="0.00" departDelay="0.00" arrival="147.00" arrivalLane="E1_0" arrivalPos="189.60" arrivalSpeed="15.15" duration="45.00" routeLength="400.00" waitingTime="0.00" waitingCount="0" stopTime="0.00" timeLoss="19.52" rerouteNo="0" devices="tripinfo_we_0.11" vType="DEFAULT_VEHTYPE" speedFactor="1.17" vaporized=""/>
    <tripinfo id="we_0.13" depart="111.00" departLane="E0_0" departPos="0.00" departSpeed="0.00" departDelay="0.00" arrival="148.00" arrivalLane="E1_0" arrivalPos="189.60" arrivalSpeed="14.66" duration="37.00" routeLength="400.00" waitingTime="0.00" waitingCount="0" stopTime="0.00" timeLoss="10.58" rerouteNo="0" devices="tripinfo_we_0.13" vType="DEFAULT_VEHTYPE" speedFactor="1.10" vaporized=""/>
    <tripinfo id="se_0.11" depart="106.00" departLane="E2_0" departPos="48.70" departSpeed="0.00" departDelay="0.00" arrival="166.00" arrivalLane="E1_0" arrivalPos="189.60" arrivalSpeed="15.56" duration="60.00" routeLength="342.73" waitingTime="27.00" waitingCount="1" stopTime="0.00" timeLoss="37.75" rerouteNo="0" devices="tripinfo_se_0.11" vType="vt_se" speedFactor="1.18" vaporized=""/>
    <tripinfo id="se_0.9" depart="101.00" departLane="E2_0" departPos="0.00" departSpeed="0.00" departDelay="0.00" arrival="170.00" arrivalLane="E1_0" arrivalPos="189.60" arrivalSpeed="13.73" duration="69.00" routeLength="391.43" waitingTime="25.00" waitingCount="1" stopTime="0.00" timeLoss="39.77" rerouteNo="0" devices="tripinfo_se_0.9" vType="vt_se" speedFactor="1.01" vaporized=""/>
    <tripinfo id="se_0.10" depart="105.00" departLane="E2_0" departPos="0.00" departSpeed="0.00" departDelay="0.00" arrival="172.00" arrivalLane="E1_0" arrivalPos="189.60" arrivalSpeed="13.85" duration="67.00" routeLength="391.43" waitingTime="25.00" waitingCount="2" stopTime="0.00" timeLoss="38.84" rerouteNo="0" devices="tripinfo_se_0.10" vType="vt_se" speedFactor="1.02" vaporized=""/>
    <tripinfo id="se_0.13" depart="114.00" departLane="E2_0" departPos="15.69" departSpeed="0.00" departDelay="0.00" arrival="175.00" arrivalLane="E1_0" arrivalPos="189.60" arrivalSpeed="14.16" duration="61.00" routeLength="375.74" waitingTime="21.00" waitingCount="1" stopTime="0.00" timeLoss="32.97" rerouteNo="0" devices="tripinfo_se_0.13" vType="vt_se" speedFactor="1.03" vaporized=""/>
    <tripinfo id="se_0.12" depart="112.00" departLane="E2_0" departPos="0.00" departSpeed="0.00" departDelay="0.00" arrival="179.00" arrivalLane="E1_0" arrivalPos="189.60" arrivalSpeed="12.00" duration="67.00" routeLength="391.43" waitingTime="19.00" waitingCount="1" stopTime="0.00" timeLoss="34.87" rerouteNo="0" devices="tripinfo_se_0.12" vType="vt_se" speedFactor="0.90" vaporized=""/>
    <tripinfo id="se_0.15" depart="125.00" departLane="E2_0" departPos="25.25" departSpeed="0.00" departDelay="0.00" arrival="181.00" arrivalLane="E1_0" arrivalPos="189.60" arrivalSpeed="13.50" duration="56.00" routeLength="366.18" waitingTime="15.00" waitingCount="1" stopTime="0.00" timeLoss="29.43" rerouteNo="0" devices="tripinfo_se_0.15" vType="vt_se" speedFactor="1.04" vaporized=""/>
    <tripinfo id="se_0.14" depart="123.00" departLane="E2_0" departPos="0.00" departSpeed="0.00" departDelay="0.00" arrival="183.00" arrivalLane="E1_0" arrivalPos="189.60" arrivalSpeed="13.89" duration="60.00" routeLength="391.43" waitingTime="13.00" waitingCount="1" stopTime="0.00" timeLoss="32.86" rerouteNo="0" devices="tripinfo_se_0.14" vType="vt_se" speedFactor="1.09" vaporized=""/>
    <tripinfo id="we_0.14" depart="148.00" departLane="E0_0" departPos="0.00" departSpeed="0.00" departDelay="0.00" arrival="186.00" arrivalLane="E1_0" arrivalPos="189.60" arrivalSpeed="11.12" duration="38.00" routeLength="400.00" waitingTime="0.00" waitingCount="0" stopTime="0.00" timeLoss="4.80" rerouteNo="0" devices="tripinfo_we_0.14" vType="DEFAULT_VEHTYPE" speedFactor="0.88" vaporized=""/>
    <tripinfo id="se_0.16" depart="134.00" departLane="E2_0" departPos="0.00" departSpeed="0.00" departDelay="0.00" arrival="188.00" arrivalLane="E1_0" arrivalPos="189.60" arrivalSpeed="13.84" duration="54.00" routeLength="391.43" waitingTime="8.00" waitingCount="1" stopTime="0.00" timeLoss="22.48" rerouteNo="0" devices="tripinfo_se_0.16" vType="vt_se" speedFactor="1.00" vaporized=""/>
    <tripinfo id="se_0.17" depart="141.00" departLane="E2_0" departPos="0.00" departSpeed="0.00" departDelay="0.00" arrival="190.00" arrivalLane="E1_0" arrivalPos="189.60" arrivalSpeed="11.68" duration="49.00" routeLength="391.43" waitingTime="0.00" waitingCount="0" stopTime="0.00" timeLoss="16.49" rerouteNo="0" devices="tripinfo_se_0.17" vType="vt_se" speedFactor="0.90" vaporized=""/>
    <tripinfo id="se_0.18" depart="155.00" departLane="E2_0" departPos="0.00" departSpeed="0.00" departDelay="0.00" arrival="195.00" arrivalLane="E1_0" arrivalPos="189.60" arrivalSpeed="11.75" duration="40.00" routeLength="391.43" waitingTime="0.00" waitingCount="0" stopTime="0.00" timeLoss="5.82" rerouteNo="0" devices="tripinfo_se_0.18" vType="vt_se" speedFactor="0.85" vaporized=""/>
    <tripinfo id="we_0.15" depart="157.00" departLane="E0_0" departPos="0.00" departSpeed="0.00" departDelay="0.00" arrival="197.00" arrivalLane="E1_0" arrivalPos="189.60" arrivalSpeed="11.09" duration="40.00" routeLength="400.00" waitingTime="0.00" waitingCount="0" stopTime="0.00" timeLoss="5.92" rerouteNo="0" devices="tripinfo_we_0.15" vType="DEFAULT_VEHTYPE" speedFactor="0.85" vaporized=""/>
    <tripinfo id="sn_0.12" depart="105.00" departLane="E2_0" departPos="7.60" departSpeed="0.00" departDelay="0.00" arrival="199.00" arrivalLane="E3_0" arrivalPos="196.00" arrivalSpeed="13.31" duration="94.00" routeLength="392.40" waitingTime="54.00" waitingCount="1" stopTime="0.00" timeLoss="64.20" rerouteNo="0" devices="tripinfo_sn_0.12" vType="DEFAULT_VEHTYPE" speedFactor="0.97" vaporized=""/>
    <tripinfo id="se_0.19" depart="165.00" departLane="E2_0" departPos="0.00" departSpeed="0.00" departDelay="0.00" arrival="199.00" arrivalLane="E1_0" arrivalPos="189.60" arrivalSpeed="14.47" duration="34.00" routeLength="391.43" waitingTime="0.00" waitingCount="0" stopTime="0.00" timeLoss="7.05" rerouteNo="0" devices="tripinfo_se_0.19" vType="vt_se" speedFactor="1.10" vaporized=""/>
    <tripinfo id="sn_0.13" depart="120.00" departLane="E2_0" departPos="0.00" departSpeed="0.00" departDelay="0.00" arrival="201.00" arrivalLane="E3_0" arrivalPos="196.00" arrivalSpeed="13.13" duration="81.00" routeLength="400.00" waitingTime="40.00" waitingCount="1" stopTime="0.00" timeLoss="50.33" rerouteNo="0" devices="tripinfo_sn_0.13" vType="DEFAULT_VEHTYPE" speedFactor="0.96" vaporized=""/>
    <tripinfo id="sn_0.14" depart="124.00" departLane="E2_0" departPos="12.51" departSpeed="0.00" departDelay="0.00" arrival="203.00" arrivalLane="E3_0" arrivalPos="196.00" arrivalSpeed="13.93" duration="79.00" routeLength="387.49" waitingTime="38.00" waitingCount="1" stopTime="0.00" timeLoss="51.21" rerouteNo="0" devices="tripinfo_sn_0.14" vType="DEFAULT_VEHTYPE" speedFactor="1.04" vaporized=""/>
    <tripinfo id="sn_0.15" depart="131.00" departLane="E2_0" departPos="0.00" departSpeed="0.00" departDelay="0.00" arrival="204.00" arrivalLane="E3_0" arrivalPos="196.00" arrivalSpeed="14.85" duration="73.00" routeLength="400.00" waitingTime="32.00" waitingCount="1" stopTime="0.00" timeLoss="46.20" rerouteNo="0" devices="tripinfo_sn_0.15" vType="DEFAULT_VEHTYPE" speedFactor="1.09" vaporized=""/>
    <tripinfo id="se_0.20" depart="170.00" departLane="E2_0" departPos="0.00" departSpeed="0.00" departDelay="0.00" arrival="205.00" arrivalLane="E1_0" arrivalPos="189.60" arrivalSpeed="13.79" duration="35.00" routeLength="391.43" waitingTime="0.00" waitingCount="0" stopTime="0.00" timeLoss="6.18" rerouteNo="0" devices="tripinfo_se_0.20" vType="vt_se" speedFactor="1.00" vaporized=""/>
    <tripinfo id="sn_0.16" depart="160.00" departLane="E2_0" departPos="0.00" departSpeed="0.00" departDelay="0.00" arrival="206.00" arrivalLane="E3_0" arrivalPos="196.00" arrivalSpeed="15.95" duration="46.00" routeLength="400.00" waitingTime="6.00" waitingCount="1" stopTime="0.00" timeLoss="20.76" rerouteNo="0" devices="tripinfo_sn_0.16" vType="DEFAULT_VEHTYPE" speedFactor="1.17" vaporized=""/>
    <tripinfo id="sn_0.17" depart="189.00" departLane="E2_0" departPos="18.76" departSpeed="0.00" departDelay="0.00" arrival="217.00" arrivalLane="E3_0" arrivalPos="196.00" arrivalSpeed="15.05" duration="28.00" routeLength="381.24" waitingTime="0.00" waitingCount="0" stopTime="0.00" timeLoss="3.89" rerouteNo="0" devices="tripinfo_sn_0.17" vType="DEFAULT_VEHTYPE" speedFactor="1.14" vaporized=""/>
    <tripinfo id="we_0.16" depart="164.00" departLane="E0_0" departPos="0.00" departSpeed="0.00" departDelay="0.00" arrival="228.00" arrivalLane="E1_0" arrivalPos="189.60" arrivalSpeed="13.27" duration="64.00" routeLength="400.00" waitingTime="25.00" waitingCount="1" stopTime="0.00" timeLoss="34.78" rerouteNo="0" devices="tripinfo_we_0.16" vType="DEFAULT_VEHTYPE" speedFactor="1.02" vaporized=""/>
    <tripinfo id="we_0.17" depart="179.00" departLane="E0_0" departPos="0.00" departSpeed="0.00" departDelay="0.00" arrival="230.00" arrivalLane="E1_0" arrivalPos="189.60" arrivalSpeed="12.55" duration="51.00" routeLength="400.00" waitingTime="12.00" waitingCount="1" stopTime="0.00" timeLoss="21.46" rerouteNo="0" devices="tripinfo_we_0.17" vType="DEFAULT_VEHTYPE" speedFactor="1.00" vaporized=""/>
    <tripinfo id="we_0.19" depart="198.00" departLane="E0_0" departPos="12.41" departSpeed="0.00" departDelay="0.00" arrival="231.00" arrivalLane="E1_0" arrivalPos="189.60" arrivalSpeed="14.40" duration="33.00" routeLength="387.59" waitingTime="0.00" waitingCount="0" stopTime="0.00" timeLoss="7.17" rerouteNo="0" devices="tripinfo_we_0.19" vType="DEFAULT_VEHTYPE" speedFactor="1.08" vaporized=""/>
    <tripinfo id="we_0.18" depart="197.00" departLane="E0_0" departPos="0.00" departSpeed="0.00" departDelay="0.00" arrival="233.00" arrivalLane="E1_0" arrivalPos="189.60" arrivalSpeed="13.19" duration="36.00" routeLength="400.00" waitingTime="0.00" waitingCount="0" stopTime="0.00" timeLoss="7.63" rerouteNo="0" devices="tripinfo_we_0.18" vType="DEFAULT_VEHTYPE" speedFactor="1.02" vaporized=""/>
    <tripinfo id="se_0.21" depart="187.00" departLane="E2_0" departPos="0.00" departSpeed="0.00" departDelay="0.00" arrival="259.00" arrivalLane="E1_0" arrivalPos="189.60" arrivalSpeed="11.35" duration="72.00" routeLength="391.43" waitingTime="28.00" waitingCount="1" stopTime="0.00" timeLoss="39.72" rerouteNo="0" devices="tripinfo_se_0.21" vType="vt_se" speedFactor="0.90" vaporized=""/>
    <tripinfo id="se_0.22" depart="200.00" departLane="E2_0" departPos="18.52" departSpeed="0.00" departDelay="0.00" arrival="261.00" arrivalLane="E1_0" arrivalPos="189.60" arrivalSpeed="15.16" duration="61.00" routeLength="372.91" waitingTime="22.00" waitingCount="1" stopTime="0.00" timeLoss="35.30" rerouteNo="0" devices="tripinfo_se_0.22" vType="vt_se" speedFactor="1.12" vaporized=""/>
    <tripinfo id="se_0.23" depart="201.00" departLane="E2_0" departPos="0.00" departSpeed="0.00" departDelay="0.00" arrival="262.00" arrivalLane="E1_0" arrivalPos="189.60" arrivalSpeed="14.06" duration="61.00" routeLength="391.43" waitingTime="20.00" waitingCount="1" stopTime="0.00" timeLoss="32.72" rerouteNo="0" devices="tripinfo_se_0.23" vType="vt_se" speedFactor="1.02" vaporized=""/>
    <tripinfo id="se_0.24" depart="215.00" departLane="E2_0" departPos="0.00" departSpeed="0.00" departDelay="0.00" arrival="266.00" arrivalLane="E1_0" arrivalPos="189.60" arrivalSpeed="12.59" duration="51.00" routeLength="391.43" waitingTime="6.00" waitingCount="1" stopTime="0.00" timeLoss="19.49" rerouteNo="0" devices="tripinfo_se_0.24" vType="vt_se" speedFactor="0.94" vaporized=""/>
    <tripinfo id="se_0.25" depart="220.00" departLane="E2_0" departPos="0.00" departSpeed="0.00" departDelay="0.00" arrival="269.00" arrivalLane="E1_0" arrivalPos="189.60" arrivalSpeed="11.78" duration="49.00" routeLength="391.43" waitingTime="5.00" waitingCount="1" stopTime="0.00" timeLoss="17.36" rerouteNo="0" devices="tripinfo_se_0.25" vType="vt_se" speedFactor="0.91" vaporized=""/>
    <tripinfo id="se_0.27" depart="226.00" departLane="E2_0" departPos="18.63" departSpeed="0.00" departDelay="0.00" arrival="271.00" arrivalLane="E1_0" arrivalPos="189.60" arrivalSpeed="13.89" duration="45.00" routeLength="372.80" waitingTime="1.00" waitingCount="1" stopTime="0.00" timeLoss="17.08" rerouteNo="0" devices="tripinfo_se_0.27" vType="vt_se" speedFactor="1.02" vaporized=""/>
    <tripinfo id="se_0.26" depart="224.00" departLane="E2_0" departPos="0.00" departSpeed="0.00" departDelay="0.00" arrival="273.00" arrivalLane="E1_0" arrivalPos="189.60" arrivalSpeed="14.36" duration="49.00" routeLength="391.43" waitingTime="0.00" waitingCount="0" stopTime="0.00" timeLoss="20.48" rerouteNo="0" devices="tripinfo_se_0.26" vType="vt_se" speedFactor="1.04" vaporized=""/>
    <tripinfo id="we_0.20" depart="239.00" departLane="E0_0" departPos="0.00" departSpeed="0.00" departDelay="0.00" arrival="275.00" arrivalLane="E1_0" arrivalPos="189.60" arrivalSpeed="12.50" duration="36.00" routeLength="400.00" waitingTime="0.00" waitingCount="0" stopTime="0.00" timeLoss="5.07" rerouteNo="0" devices="tripinfo_we_0.20" vType="DEFAULT_VEHTYPE" speedFactor="0.94" vaporized=""/>
    <tripinfo id="se_0.28" depart="234.00" departLane="E2_0" departPos="0.00" departSpeed="0.00" departDelay="0.00" arrival="277.00" arrivalLane="E1_0" arrivalPos="189.60" arrivalSpeed="13.80" duration="43.00" routeLength="391.43" waitingTime="0.00" waitingCount="0" stopTime="0.00" timeLoss="12.21" rerouteNo="0" devices="tripinfo_se_0.28" vType="vt_se" speedFactor="1.02" vaporized=""/>
    <tripinfo id="se_0.29" depart="242.00" departLane="E2_0" departPos="0.00" departSpeed="0.00" departDelay="0.00" arrival="278.00" arrivalLane="E1_0" arrivalPos="189.60" arrivalSpeed="14.63" duration="36.00" routeLength="391.43" waitingTime="0.00" waitingCount="0" stopTime="0.00" timeLoss="8.76" rerouteNo="0" devices="tripinfo_se_0.29" vType="vt_se" speedFactor="1.06" vaporized=""/>
    <tripinfo id="we_0.22" depart="245.00" departLane="E0_0" departPos="17.66" departSpeed="0.00" departDelay="0.00" arrival="280.00" arrivalLane="E1_0" arrivalPos="189.60" arrivalSpeed="13.04" duration="35.00" routeLength="382.34" waitingTime="0.00" waitingCount="0" stopTime="0.00" timeLoss="6.83" rerouteNo="0" devices="tripinfo_we_0.22" vType="DEFAULT_VEHTYPE" speedFactor="0.98" vaporized=""/>
    <tripinfo id="we_0.21" depart="243.00" departLane="E0_0" departPos="0.00" departSpeed="0.00" departDelay="0.00" arrival="282.00" arrivalLane="E1_0" arrivalPos="189.60" arrivalSpeed="13.09" duration="39.00" routeLength="400.00" waitingTime="0.00" waitingCount="0" stopTime="0.00" timeLoss="8.49" rerouteNo="0" devices="tripinfo_we_0.21" vType="DEFAULT_VEHTYPE" speedFactor="0.96" vaporized=""/>
    <tripinfo id="sn_0.18" depart="198.00" departLane="E2_0" departPos="0.00" departSpeed="0.00" departDelay="0.00" arrival="289.00" arrivalLane="E3_0" arrivalPos="196.00" arrivalSpeed="13.34" duration="91.00" routeLength="400.00" waitingTime="49.00" waitingCount="1" stopTime="0.00" timeLoss="60.35" rerouteNo="0" devices="tripinfo_sn_0.18" vType="DEFAULT_VEHTYPE" speedFactor="0.97" vaporized=""/>
    <tripinfo id="sn_0.19" depart="204.00" departLane="E2_0" departPos="0.00" departSpeed="0.00" departDelay="0.00" arrival="290.00" arrivalLane="E3_0" arrivalPos="196.00" arrivalSpeed="13.43" duration="86.00" routeLength="400.00" waitingTime="47.00" waitingCount="1" stopTime="0.00" timeLoss="56.67" rerouteNo="0" devices="tripinfo_sn_0.19" vType="DEFAULT_VEHTYPE" speedFactor="0.99" vaporized=""/>